 Gaussian 16, Revision C.01,
 Gaussian 16:  EM64L-G16RevC.01  3-Jul-2019

 ----------------------------------------
 #p mp2/3-21g opt freq gfinput iop(6/7=3)
 ----------------------------------------

 ----------------------
 Arkadiusz Rembiszewski
 ----------------------
 Symbolic Z-matrix:
 Charge =  0 Multiplicity = 1

 SCF Done:  E(RHF) =  -506.545846158     A.U. after   11 cycles
 E2 =    -0.2451956913D+00 EUMP2 =    -0.50679104184954D+03
 E2 =    -0.2451956913D+00 EUMP2 =    -0.50679104184954D+03
 ******    2 imaginary frequencies (negative Signs) ******
    2 imaginary frequencies ignored.
 Normal termination of Gaussian 16 at Wed May 11 08:21:56 2022.
 SCF Done:  E(RHF) =  -507.473050120     A.U. after   12 cycles
 E2 =    -0.2896749312D+00 EUMP2 =    -0.50776272505088D+03
 SCF Done:  E(RHF) =  -507.468313572     A.U. after   14 cycles
 E2 =    -0.2944537408D+00 EUMP2 =    -0.50776276731275D+03
 SCF Done:  E(RHF) =  -507.531132175     A.U. after   11 cycles
 E2 =    -0.3094181792D+00 EUMP2 =    -0.50784055035411D+03
 SCF Done:  E(RHF) =  -507.550081245     A.U. after   11 cycles
 E2 =    -0.3104912252D+00 EUMP2 =    -0.50786057247026D+03
 SCF Done:  E(RHF) =  -507.586910613     A.U. after   12 cycles
 E2 =    -0.3152673425D+00 EUMP2 =    -0.50790217795592D+03
 SCF Done:  E(RHF) =  -507.658383681     A.U. after   12 cycles
 E2 =    -0.2702854697D+00 EUMP2 =    -0.50792866915110D+03
 SCF Done:  E(RHF) =  -507.659560677     A.U. after   12 cycles
 E2 =    -0.2942466803D+00 EUMP2 =    -0.50795380735703D+03
 SCF Done:  E(RHF) =  -507.661660831     A.U. after   11 cycles
 E2 =    -0.2923191999D+00 EUMP2 =    -0.50795398003049D+03
 SCF Done:  E(RHF) =  -507.661608368     A.U. after    8 cycles
 E2 =    -0.2923726869D+00 EUMP2 =    -0.50795398105490D+03
 Optimization completed.
    -- Stationary point found.
 Normal termination of Gaussian 16 at Wed May 11 08:21:55 2022.

 ----------------------------------------------------------------------
 #P Geom=AllCheck Guess=TCheck SCRF=Check Test GenChk RMP2(FC)/3-21G Fr
 eq
 ----------------------------------------------------------------------

 Structure from the checkpoint file:  "/scratch/pbs.4144441.ossachilles/Gau-140729.chk"
 ----------------------
 Arkadiusz Rembiszewski
 ----------------------
 Charge =  0 Multiplicity = 1

                         Standard orientation:
 ---------------------------------------------------------------------
 Center     Atomic      Atomic             Coordinates (Angstroms)
 Number     Number       Type             X           Y           Z
 ---------------------------------------------------------------------
      1          8           0        0.000000    0.000000   -1.740959
      2          6           0        0.000000    0.000000   -0.548788
      3         16           0        0.000000    0.000000    1.076275
 ---------------------------------------------------------------------

 SCF Done:  E(RHF) =  -507.661608368     A.U. after    1 cycles
 E2 =    -0.2923726877D+00 EUMP2 =    -0.50795398105570D+03
 E2 =    -0.2923726877D+00 EUMP2 =    -0.50795398105570D+03

 The electronic state is 1-SG.
 Alpha  occ. eigenvalues --  -91.35889 -20.59849 -11.42167  -8.95612  -6.63166
 Alpha  occ. eigenvalues --   -6.62648  -6.62648  -1.52329  -1.09660  -0.77557
 Alpha  occ. eigenvalues --   -0.66074  -0.66074  -0.62748  -0.41498  -0.41498
 Alpha virt. eigenvalues --    0.10069   0.10069   0.20244   0.34344   0.63073
 Alpha virt. eigenvalues --    0.69693   0.69693   0.88612   0.90379   0.90379
 Alpha virt. eigenvalues --    1.03388   1.59592   1.79891   1.79891   1.81255

 Mulliken charges:
               1
     1  O   -0.495497
     2  C    0.245062
     3  S    0.250436
 Sum of Mulliken charges =   0.00000

 Dipole moment (field-independent basis, Debye):
    X=              0.0000    Y=              0.0000    Z=             -0.0333  Tot=              0.0333
 Quadrupole moment (field-independent basis, Debye-Ang):
   XX=            -24.0451   YY=            -24.0451   ZZ=            -27.6768
   XY=             -0.0000   XZ=              0.0000   YZ=             -0.0000

  Exact polarizability:      10.693      -0.000      10.693      -0.000      -0.000      48.804
 Approx polarizability:       8.170       0.000       8.170      -0.000       0.000      56.018

                      1                      2                      3
                     PI                     PI                     SG
 Frequencies --    504.8875               504.8875               801.8092
 Red. masses --     13.0326                13.0326                19.6551
 Frc consts  --      1.9574                 1.9574                 7.4451
 IR Inten    --      2.4655                 2.4655                 9.4125

                      4
                     SG
 Frequencies --   1985.8026
 Red. masses --     13.1189
 Frc consts  --     30.4804
 IR Inten    --    381.2730

 - Thermochemistry -
 -------------------
 Temperature   298.150 Kelvin.  Pressure   1.00000 Atm.
 Atom     1 has atomic number  8 and mass  15.99491

 Molecular mass:    59.96699 amu.
 Principal axes and moments of inertia in atomic units:
                           1         2         3
     Eigenvalues --     0.00000 318.28565 318.28565
           X            0.00000  -0.00000   1.00000
           Y            0.00000   1.00000   0.00000
           Z            1.00000   0.00000   0.00000
 This molecule is a prolate symmetric top.
 Rotational symmetry number  1.
 Rotational temperature (Kelvin)      0.27213
 Rotational constant (GHZ):           5.670193
 Zero-point vibrational energy      22713.4 (Joules/Mol)
                                    5.42864 (Kcal/Mol)
 Warning -- explicit consideration of   2 degrees of freedom as
           vibrations may cause significant error
 Vibrational temperatures:    726.42   726.42  1153.62  2857.13
          (Kelvin)

 Zero-point correction=                           0.008651 (Hartree/Particle)
 Thermal correction to Energy=                    0.011531
 Thermal correction to Enthalpy=                  0.012475
 Thermal correction to Gibbs Free Energy=        -0.013937
 Sum of electronic and zero-point Energies=           -507.945330
 Sum of electronic and thermal Energies=              -507.942450
 Sum of electronic and thermal Enthalpies=            -507.941506
 Sum of electronic and thermal Free Energies=         -507.967918

                     E (Thermal)             CV                S
                      KCal/Mol        Cal/Mol-Kelvin    Cal/Mol-Kelvin
 Total                    7.236              8.107             55.589
 Electronic               0.000              0.000              0.000
 Translational            0.889              2.981             38.194
 Rotational               0.592              1.987             15.896
 Vibrational              5.755              3.139              1.499
 Vibration     1          0.860              1.239              0.646
 Vibration     2          0.860              1.239              0.646

 Optimization completed.
    -- Stationary point found.
 Normal termination of Gaussian 16 at Wed May 11 08:21:59 2022.
