 Gaussian 16, Revision C.01,
 Gaussian 16:  EM64L-G16RevC.01  3-Jul-2019

 -----------------------------------
 #p hf/6-31g* opt(maxcycle=100) freq
 -----------------------------------

 ------------
 rembiszewski
 ------------
 Symbolic Z-matrix:
 Charge =  0 Multiplicity = 1

 SCF Done:  E(RHF) =  -535.981973128     A.U. after   11 cycles
 SCF Done:  E(RHF) =  -536.051609129     A.U. after   11 cycles
 SCF Done:  E(RHF) =  -536.067354671     A.U. after   11 cycles
 SCF Done:  E(RHF) =  -536.068608609     A.U. after   10 cycles
 SCF Done:  E(RHF) =  -536.069950563     A.U. after   11 cycles
 SCF Done:  E(RHF) =  -536.072507487     A.U. after   12 cycles
 SCF Done:  E(RHF) =  -536.073417370     A.U. after   11 cycles
 SCF Done:  E(RHF) =  -536.073541387     A.U. after    9 cycles
 SCF Done:  E(RHF) =  -536.073547379     A.U. after    7 cycles
 SCF Done:  E(RHF) =  -536.073545456     A.U. after    6 cycles
 SCF Done:  E(RHF) =  -536.079883248     A.U. after   10 cycles
 SCF Done:  E(RHF) =  -536.079924885     A.U. after   10 cycles
 SCF Done:  E(RHF) =  -536.079957896     A.U. after    9 cycles
 SCF Done:  E(RHF) =  -536.079972206     A.U. after   10 cycles
 SCF Done:  E(RHF) =  -536.079988865     A.U. after   10 cycles
 SCF Done:  E(RHF) =  -536.080019468     A.U. after   10 cycles
 SCF Done:  E(RHF) =  -536.080051191     A.U. after    9 cycles
 SCF Done:  E(RHF) =  -536.080067707     A.U. after   10 cycles
 SCF Done:  E(RHF) =  -536.080067999     A.U. after    9 cycles
 Optimization completed.
    -- Stationary point found.
 Normal termination of Gaussian 16 at Wed Jun 15 08:27:14 2022.

 -----------------------------------------------------------------
 #P Geom=AllCheck Guess=TCheck SCRF=Check GenChk RHF/6-31G(d) Freq
 -----------------------------------------------------------------

 Structure from the checkpoint file:  "/scratch/pbs.4261667.ossachilles/Gau-69071.chk"
 ------------
 rembiszewski
 ------------
 Charge =  0 Multiplicity = 1

                         Standard orientation:
 ---------------------------------------------------------------------
 Center     Atomic      Atomic             Coordinates (Angstroms)
 Number     Number       Type             X           Y           Z
 ---------------------------------------------------------------------
      1          8           0       -2.004717   -0.000014   -0.068911
      2          1           0       -2.473378   -0.758614    0.253519
      3          1           0       -2.473522    0.758448    0.253635
      4          1           0       -0.037770    0.000688   -0.074289
      5         17           0        1.236612   -0.000024    0.006966
 ---------------------------------------------------------------------

 SCF Done:  E(RHF) =  -536.080067999     A.U. after    1 cycles

 The electronic state is 1-A.
 Alpha  occ. eigenvalues -- -104.79987 -20.59773 -10.53572  -8.00558  -8.00173
 Alpha  occ. eigenvalues --   -8.00172  -1.38459  -1.08804  -0.75319  -0.63923
 Alpha  occ. eigenvalues --   -0.57542  -0.53189  -0.44626  -0.44590
 Alpha virt. eigenvalues --    0.17891   0.27144   0.28151   0.56941   0.62153
 Alpha virt. eigenvalues --    0.64622   0.64815   1.00138   1.04360   1.11719
 Alpha virt. eigenvalues --    1.13698   1.14593   1.14802   1.17157   1.17157

 Mulliken charges:
               1
     1  O   -0.875403
     2  H    0.454071
     3  H    0.454059
     4  H    0.281667
     5  Cl  -0.314395
 Sum of Mulliken charges =   0.00000

 Dipole moment (field-independent basis, Debye):
    X=             -4.1544    Y=              0.0006    Z=              1.1448  Tot=              4.3092
 Quadrupole moment (field-independent basis, Debye-Ang):
   XX=            -12.5731   YY=            -18.1245   ZZ=            -20.9461
   XY=             -0.0004   XZ=             -3.1418   YZ=             -0.0000

  Exact polarizability:      19.876      -0.003      12.437      -0.643       0.000       9.433
 Approx polarizability:      15.550      -0.003      10.705      -0.378      -0.000       8.339

                      1                      2                      3
                      A                      A                      A
 Frequencies --    142.9879               172.5792               194.8159
 Red. masses --      1.8710                 2.1030                 1.0439
 Frc consts  --      0.0225                 0.0369                 0.0233
 IR Inten    --     84.8745               191.7656                 8.8362
 Raman Activ --      0.5874                 1.4576                 6.6114

                      4                      5                      6
                      A                      A                      A
 Frequencies --    438.4500               546.2492              1819.4124
 Red. masses --      1.0468                 1.0452                 1.0840
 Frc consts  --      0.1186                 0.1838                 2.1143
 IR Inten    --    145.0451               114.5272                97.8134
 Raman Activ --      9.0545                 3.8490                 3.8927

                      7                      8                      9
                      A                      A                      A
 Frequencies --   3022.9395              4068.5315              4183.6700
 Red. masses --      1.0365                 1.0453                 1.0836
 Frc consts  --      5.5805                10.1942                11.1743
 IR Inten    --    442.0059                42.4665                99.4193
 Raman Activ --    209.8819                77.7189                45.3620

 - Thermochemistry -
 -------------------
 Temperature   298.150 Kelvin.  Pressure   1.00000 Atm.
 Atom     1 has atomic number  8 and mass  15.99491

 Molecular mass:    53.98724 amu.
 Principal axes and moments of inertia in atomic units:
                           1         2         3
     Eigenvalues --     4.84318 462.80163 466.24148
           X            0.99995   0.00000  -0.01004
           Y           -0.00000   1.00000  -0.00000
           Z            0.01004   0.00000   0.99995
 This molecule is an asymmetric top.
 Rotational symmetry number  1.
 Rotational temperatures (Kelvin)     17.88369     0.18715     0.18577
 Rotational constants (GHZ):         372.63555     3.89960     3.87083
 Zero-point vibrational energy      87265.4 (Joules/Mol)
                                   20.85693 (Kcal/Mol)
 Warning -- explicit consideration of   5 degrees of freedom as
           vibrations may cause significant error
 Vibrational temperatures:    205.73   248.30   280.30   630.83   785.93
          (Kelvin)           2617.73  4349.34  5853.71  6019.37

 Zero-point correction=                           0.033238 (Hartree/Particle)
 Thermal correction to Energy=                    0.038367
 Thermal correction to Enthalpy=                  0.039311
 Thermal correction to Gibbs Free Energy=         0.006910
 Sum of electronic and zero-point Energies=           -536.046830
 Sum of electronic and thermal Energies=              -536.041701
 Sum of electronic and thermal Enthalpies=            -536.040757
 Sum of electronic and thermal Free Energies=         -536.073158

                     E (Thermal)             CV                S
                      KCal/Mol        Cal/Mol-Kelvin    Cal/Mol-Kelvin
 Total                   24.076             14.153             68.193
 Electronic               0.000              0.000              0.000
 Translational            0.889              2.981             37.881
 Rotational               0.889              2.981             21.574
 Vibrational             22.298              8.192              8.739
 Vibration     1          0.616              1.910              2.764
 Vibration     2          0.626              1.876              2.407
 Vibration     3          0.635              1.847              2.182
 Vibration     4          0.799              1.386              0.831
 Vibration     5          0.901              1.148              0.552

 Optimization completed.
    -- Stationary point found.
 Normal termination of Gaussian 16 at Wed Jun 15 08:27:18 2022.
