 Gaussian 16, Revision C.01,
 Gaussian 16:  EM64L-G16RevC.01  3-Jul-2019

 ------------------------
 #p b3lyp/6-31g* opt freq
 ------------------------

 ------------
 rembiszewski
 ------------
 Symbolic Z-matrix:
 Charge =  0 Multiplicity = 1

 SCF Done:  E(RB3LYP) =  -574.056606551     A.U. after   15 cycles
 SCF Done:  E(RB3LYP) =  -574.103562606     A.U. after   13 cycles
 SCF Done:  E(RB3LYP) =  -574.114790287     A.U. after   13 cycles
 SCF Done:  E(RB3LYP) =  -574.116902923     A.U. after   13 cycles
 SCF Done:  E(RB3LYP) =  -574.116995422     A.U. after   11 cycles
 SCF Done:  E(RB3LYP) =  -574.116998167     A.U. after    8 cycles
 Optimization completed.
    -- Stationary point found.
 Normal termination of Gaussian 16 at Wed Jun 15 08:22:33 2022.

 --------------------------------------------------------------------
 #P Geom=AllCheck Guess=TCheck SCRF=Check GenChk RB3LYP/6-31G(d) Freq
 --------------------------------------------------------------------

 Structure from the checkpoint file:  "/scratch/pbs.4261629.ossachilles/Gau-72146.chk"
 ------------
 rembiszewski
 ------------
 Charge =  0 Multiplicity = 1

                         Standard orientation:
 ---------------------------------------------------------------------
 Center     Atomic      Atomic             Coordinates (Angstroms)
 Number     Number       Type             X           Y           Z
 ---------------------------------------------------------------------
      1          6           0        0.000000    0.808773    0.000000
      2          8           0        1.125475    1.180446   -0.000000
      3         17           0       -0.476567   -0.925323    0.000000
      4          1           0       -0.902162    1.434281    0.000000
 ---------------------------------------------------------------------

 SCF Done:  E(RB3LYP) =  -574.116998167     A.U. after    1 cycles

 The electronic state is 1-A'.
 Alpha  occ. eigenvalues -- -101.56226 -19.20710 -10.35527  -9.48030  -7.24317
 Alpha  occ. eigenvalues --   -7.23546  -7.23394  -1.11158  -0.86237  -0.63740
 Alpha  occ. eigenvalues --   -0.51434  -0.48333  -0.45236  -0.33845  -0.33474
 Alpha  occ. eigenvalues --   -0.31600
 Alpha virt. eigenvalues --   -0.05829   0.00693   0.13176   0.21183   0.36543
 Alpha virt. eigenvalues --    0.41624   0.43470   0.44492   0.50386   0.58482
 Alpha virt. eigenvalues --    0.66066   0.75004   0.79443   0.83153   0.83903

 Mulliken charges:
               1
     1  C    0.126130
     2  O   -0.280195
     3  Cl  -0.042009
     4  H    0.196073
 Sum of Mulliken charges =  -0.00000

 Dipole moment (field-independent basis, Debye):
    X=             -1.6312    Y=              0.9172    Z=              0.0000  Tot=              1.8714
 Quadrupole moment (field-independent basis, Debye-Ang):
   XX=            -25.0451   YY=            -23.1248   ZZ=            -23.1236
   XY=             -2.6371   XZ=              0.0000   YZ=              0.0000

  Exact polarizability:      23.062       6.773      33.229       0.000       0.000      11.861
 Approx polarizability:      39.428      16.583      53.698      -0.000       0.000      16.386

                      1                      2                      3
                     A'                     A'                     A"
 Frequencies --    447.7845               728.3846               944.4313
 Red. masses --     17.1915                 6.3373                 1.5902
 Frc consts  --      2.0310                 1.9810                 0.8357
 IR Inten    --     13.8075               210.1062                 1.5888

                      4                      5                      6
                     A'                     A'                     A'
 Frequencies --   1356.0835              1878.7788              3091.3593
 Red. masses --      1.1129                 9.7684                 1.0995
 Frc consts  --      1.2058                20.3155                 6.1908
 IR Inten    --     36.2721               353.0703                29.7467

 - Thermochemistry -
 -------------------
 Temperature   298.150 Kelvin.  Pressure   1.00000 Atm.
 Atom     1 has atomic number  6 and mass  12.00000

 Molecular mass:    63.97159 amu.
 Principal axes and moments of inertia in atomic units:
                           1         2         3
     Eigenvalues --    23.18808 302.09081 325.27889
           X            0.53706   0.84355   0.00000
           Y            0.84355  -0.53706   0.00000
           Z           -0.00000  -0.00000   1.00000
 This molecule is an asymmetric top.
 Rotational symmetry number  1.
 Rotational temperatures (Kelvin)      3.73528     0.28671     0.26628
 Rotational constants (GHZ):          77.83056     5.97417     5.54829
 Zero-point vibrational energy      50523.2 (Joules/Mol)
                                   12.07534 (Kcal/Mol)
 Warning -- explicit consideration of   1 degrees of freedom as
           vibrations may cause significant error
 Vibrational temperatures:    644.26  1047.98  1358.83  1951.10  2703.14
          (Kelvin)           4447.78

 Zero-point correction=                           0.019243 (Hartree/Particle)
 Thermal correction to Energy=                    0.022499
 Thermal correction to Enthalpy=                  0.023443
 Thermal correction to Gibbs Free Energy=        -0.005993
 Sum of electronic and zero-point Energies=           -574.097755
 Sum of electronic and thermal Energies=              -574.094499
 Sum of electronic and thermal Enthalpies=            -574.093555
 Sum of electronic and thermal Free Energies=         -574.122991

                     E (Thermal)             CV                S
                      KCal/Mol        Cal/Mol-Kelvin    Cal/Mol-Kelvin
 Total                   14.118              8.687             61.952
 Electronic               0.000              0.000              0.000
 Translational            0.889              2.981             38.386
 Rotational               0.889              2.981             22.348
 Vibrational             12.341              2.726              1.218
 Vibration     1          0.807              1.366              0.803

 Optimization completed.
    -- Stationary point found.
 Normal termination of Gaussian 16 at Wed Jun 15 08:22:48 2022.
